 Gaussian 16, Revision A.03,
 Gaussian 16:  EM64M-G16RevA.03 25-Dec-2016

 -------------------------------
 # freq opt=tight b3lyp 6-31g(d)
 -------------------------------

 ---------
 good luck
 ---------
 Symbolic Z-matrix:
 Charge =  0 Multiplicity = 1

 SCF Done:  E(RB3LYP) =  -592.663632027     A.U. after   15 cycles
 SCF Done:  E(RB3LYP) =  -592.666055206     A.U. after   13 cycles
 SCF Done:  E(RB3LYP) =  -592.666158467     A.U. after   13 cycles
 SCF Done:  E(RB3LYP) =  -592.666378791     A.U. after   12 cycles
 SCF Done:  E(RB3LYP) =  -592.666406706     A.U. after   12 cycles
 SCF Done:  E(RB3LYP) =  -592.666474696     A.U. after   12 cycles
 SCF Done:  E(RB3LYP) =  -592.666481431     A.U. after   10 cycles
 SCF Done:  E(RB3LYP) =  -592.666483616     A.U. after   10 cycles
 SCF Done:  E(RB3LYP) =  -592.666483724     A.U. after    7 cycles
 SCF Done:  E(RB3LYP) =  -592.666483758     A.U. after    7 cycles
 SCF Done:  E(RB3LYP) =  -592.666483759     A.U. after    5 cycles
 SCF Done:  E(RB3LYP) =  -592.666483760     A.U. after    4 cycles
 SCF Done:  E(RB3LYP) =  -592.666483760     A.U. after    4 cycles
 SCF Done:  E(RB3LYP) =  -592.666483760     A.U. after    4 cycles
 Optimization completed.
    -- Stationary point found.
 Normal termination of Gaussian 16 at Sat Nov 16 07:04:04 2024.

 --------------------------------------------------------------------
 #N Geom=AllCheck Guess=TCheck SCRF=Check GenChk RB3LYP/6-31G(d) Freq
 --------------------------------------------------------------------

 Structure from the checkpoint file:  "1.chk"
 ---------
 good luck
 ---------
 Charge =  0 Multiplicity = 1

                         Standard orientation:
 ---------------------------------------------------------------------
 Center     Atomic      Atomic             Coordinates (Angstroms)
 Number     Number       Type             X           Y           Z
 ---------------------------------------------------------------------
      1          8           0       -0.013584    2.305007    0.039558
      2          6           0        0.003204    1.080710    0.015614
      3          6           0        1.302650    0.338904   -0.020256
      4          6           0        2.446027    1.001332    0.456600
      5          6           0        3.689847    0.380185    0.413049
      6          6           0        3.812349   -0.902567   -0.130646
      7          6           0        2.686642   -1.559514   -0.629754
      8          6           0        1.435098   -0.945923   -0.570294
      9          6           0       -1.305930    0.334116    0.028580
     10          6           0       -2.428017    0.944681   -0.545108
     11          6           0       -3.653834    0.286253   -0.491374
     12          7           0       -3.836841   -0.901101    0.104615
     13          6           0       -2.766317   -1.465762    0.673683
     14          6           0       -1.488495   -0.902285    0.659169
     15          1           0        2.333460    2.003659    0.856905
     16          1           0        4.566519    0.894851    0.796506
     17          1           0        4.785058   -1.385546   -0.170134
     18          1           0        2.782027   -2.548850   -1.068476
     19          1           0        0.567586   -1.456085   -0.976285
     20          1           0       -2.330188    1.916289   -1.017577
     21          1           0       -4.537086    0.733463   -0.943967
     22          1           0       -2.935139   -2.420963    1.168258
     23          1           0       -0.665020   -1.409946    1.150421
 ---------------------------------------------------------------------

 SCF Done:  E(RB3LYP) =  -592.666483760     A.U. after    1 cycles

 The electronic state is 1-A.
 Alpha  occ. eigenvalues --  -19.14632 -14.33884 -10.28696 -10.23106 -10.22918
 Alpha  occ. eigenvalues --  -10.22167 -10.21138 -10.21112 -10.21039 -10.20956
 Alpha  occ. eigenvalues --  -10.20644 -10.20640 -10.20514 -10.20457  -1.04558
 Alpha  occ. eigenvalues --   -0.94732  -0.86976  -0.82182  -0.77286  -0.76643
 Alpha  occ. eigenvalues --   -0.76009  -0.67413  -0.63993  -0.62749  -0.61587
 Alpha  occ. eigenvalues --   -0.57100  -0.53894  -0.50533  -0.49213  -0.47674
 Alpha  occ. eigenvalues --   -0.46624  -0.45874  -0.44220  -0.43653  -0.43562
 Alpha  occ. eigenvalues --   -0.42270  -0.40930  -0.39504  -0.37553  -0.37035
 Alpha  occ. eigenvalues --   -0.36129  -0.35604  -0.29303  -0.27211  -0.26905
 Alpha  occ. eigenvalues --   -0.26780  -0.26285  -0.25351
 Alpha virt. eigenvalues --   -0.07757  -0.02852  -0.01970  -0.01263   0.04497
 Alpha virt. eigenvalues --    0.08584   0.10731   0.13011   0.13701   0.13886
 Alpha virt. eigenvalues --    0.14980   0.16000   0.16866   0.17474   0.17686

 Mulliken charges:
               1
     1  O   -0.454055
     2  C    0.327121
     3  C    0.072095
     4  C   -0.150012
     5  C   -0.134439
     6  C   -0.117680
     7  C   -0.136510
     8  C   -0.177313
     9  C    0.088566
    10  C   -0.157763
    11  C    0.034774
    12  N   -0.398850
    13  C    0.035518
    14  C   -0.183520
    15  H    0.163417
    16  H    0.141818
    17  H    0.140992
    18  H    0.140339
    19  H    0.151125
    20  H    0.164071
    21  H    0.148846
    22  H    0.147176
    23  H    0.154283
 Sum of Mulliken charges =   0.00000

 Dipole moment (field-independent basis, Debye):
    X=              2.6305    Y=             -1.9329    Z=             -0.1333  Tot=              3.2670
 Quadrupole moment (field-independent basis, Debye-Ang):
   XX=            -77.6749   YY=            -80.7515   ZZ=            -79.0221
   XY=             -5.5887   XZ=              2.8257   YZ=             -0.3943

  Exact polarizability: 185.848  -3.816 128.629  12.478  -0.513  65.083
 Approx polarizability: 269.651  -4.863 243.881  24.520  -1.074 108.461

                      1                      2                      3
                      A                      A                      A
 Frequencies --     41.6000                64.1799                95.2761
 Red. masses --      4.8699                 4.0666                 5.0433
 Frc consts  --      0.0050                 0.0099                 0.0270
 IR Inten    --      0.4872                 0.0797                 0.4172

                      4                      5                      6
                      A                      A                      A
 Frequencies --    137.0845               213.5412               236.1338
 Red. masses --      6.8846                 5.3961                 5.2900
 Frc consts  --      0.0762                 0.1450                 0.1738
 IR Inten    --      4.7150                 1.6168                 5.6798

                      7                      8                      9
                      A                      A                      A
 Frequencies --    287.8023               378.4764               391.8439
 Red. masses --      6.0975                 7.9083                 2.6616
 Frc consts  --      0.2976                 0.6674                 0.2408
 IR Inten    --      0.4582                 4.5188                 0.2919

                     10                     11                     12
                      A                      A                      A
 Frequencies --    420.3230               447.7786               460.2842
 Red. masses --      2.9963                 4.3452                 5.6780
 Frc consts  --      0.3119                 0.5133                 0.7088
 IR Inten    --      0.1098                 1.7102                 4.0717

                     13                     14                     15
                      A                      A                      A
 Frequencies --    578.1050               631.7663               651.8901
 Red. masses --      5.0767                 6.4313                 6.5965
 Frc consts  --      0.9996                 1.5124                 1.6516
 IR Inten    --      2.0050                 0.0843                55.9480

                     16                     17                     18
                      A                      A                      A
 Frequencies --    682.7223               699.8290               716.9722
 Red. masses --      6.7920                 4.1493                 1.7088
 Frc consts  --      1.8653                 1.1973                 0.5176
 IR Inten    --      2.1443                 3.2301                62.8657

                     19                     20                     21
                      A                      A                      A
 Frequencies --    734.3549               764.7053               805.3516
 Red. masses --      4.8900                 2.9890                 1.8205
 Frc consts  --      1.5537                 1.0298                 0.6957
 IR Inten    --      3.3927                10.7588                 8.0498

                     22                     23                     24
                      A                      A                      A
 Frequencies --    863.0323               871.1589               903.3880
 Red. masses --      1.7606                 1.3600                 1.2465
 Frc consts  --      0.7726                 0.6081                 0.5994
 IR Inten    --      9.9085                 3.2698                 2.4685

                     25                     26                     27
                      A                      A                      A
 Frequencies --    948.0836               961.6028               983.3018
 Red. masses --      2.2696                 2.2073                 1.3488
 Frc consts  --      1.2020                 1.2026                 0.7684
 IR Inten    --     24.7757                19.9733                 1.6575

                     28                     29                     30
                      A                      A                      A
 Frequencies --    990.4993               998.6743              1008.4586
 Red. masses --      1.3434                 1.4544                 1.3034
 Frc consts  --      0.7766                 0.8547                 0.7810
 IR Inten    --      2.9877                 1.6090                 0.3135

                     31                     32                     33
                      A                      A                      A
 Frequencies --   1012.4320              1018.6145              1057.5156
 Red. masses --      6.5281                 6.0910                 2.1755
 Frc consts  --      3.9424                 3.7236                 1.4334
 IR Inten    --      4.3913                 1.9581                 1.0423

                     34                     35                     36
                      A                      A                      A
 Frequencies --   1098.4728              1114.2794              1119.8205
 Red. masses --      1.9682                 1.5614                 1.5388
 Frc consts  --      1.3993                 1.1422                 1.1369
 IR Inten    --      5.4072                 4.2579                 0.9399

                     37                     38                     39
                      A                      A                      A
 Frequencies --   1177.5880              1195.4621              1213.4445
 Red. masses --      3.3413                 1.1071                 1.1649
 Frc consts  --      2.7299                 0.9322                 1.0106
 IR Inten    --      7.7764                 0.0910                18.4261

                     40                     41                     42
                      A                      A                      A
 Frequencies --   1253.3827              1292.6450              1305.9394
 Red. masses --      1.2984                 5.8775                 6.0437
 Frc consts  --      1.2017                 5.7863                 6.0730
 IR Inten    --      4.8905               132.5487               158.5360

                     43                     44                     45
                      A                      A                      A
 Frequencies --   1351.1515              1365.3476              1368.6967
 Red. masses --      2.2197                 1.4607                 2.3473
 Frc consts  --      2.3875                 1.6044                 2.5908
 IR Inten    --     26.7825                17.9171                 2.8915

                     46                     47                     48
                      A                      A                      A
 Frequencies --   1454.1145              1493.5077              1535.8510
 Red. masses --      1.9116                 2.2349                 2.0837
 Frc consts  --      2.3815                 2.9371                 2.8959
 IR Inten    --     25.6673                16.6192                 0.5981

                     49                     50                     51
                      A                      A                      A
 Frequencies --   1539.7232              1608.5010              1635.8782
 Red. masses --      2.1862                 7.3552                 5.3384
 Frc consts  --      3.0537                11.2121                 8.4171
 IR Inten    --      2.9749                21.4926                 7.1306

                     52                     53                     54
                      A                      A                      A
 Frequencies --   1647.0582              1657.4717              1745.6200
 Red. masses --      5.2902                 5.4691                12.4800
 Frc consts  --      8.4555                 8.8524                22.4059
 IR Inten    --      8.0120                23.4238               144.4427

                     55                     56                     57
                      A                      A                      A
 Frequencies --   3174.5223              3179.2870              3187.1240
 Red. masses --      1.0886                 1.0911                 1.0856
 Frc consts  --      6.4636                 6.4979                 6.4972
 IR Inten    --     29.3775                24.8137                 0.0462

                     58                     59                     60
                      A                      A                      A
 Frequencies --   3197.8210              3207.8156              3216.9805
 Red. masses --      1.0893                 1.0933                 1.0944
 Frc consts  --      6.5628                 6.6281                 6.6732
 IR Inten    --     10.8129                27.2431                 6.7586

                     61                     62                     63
                      A                      A                      A
 Frequencies --   3221.0843              3224.9035              3228.3883
 Red. masses --      1.0927                 1.0936                 1.0929
 Frc consts  --      6.6794                 6.7013                 6.7114
 IR Inten    --      8.4205                 6.7550                 4.3866

 - Thermochemistry -
 -------------------
 Temperature   298.150 Kelvin.  Pressure   1.00000 Atm.
 Atom     1 has atomic number  8 and mass  15.99491

 Molecular mass:   183.06841 amu.
 Principal axes and moments of inertia in atomic units:
                           1         2         3
     Eigenvalues --  1036.349754460.737325219.30582
           X            0.99998  -0.00583   0.00318
           Y            0.00583   0.99998  -0.00138
           Z           -0.00318   0.00140   0.99999
 This molecule is an asymmetric top.
 Rotational symmetry number  1.
 Warning -- assumption of classical behavior for rotation
           may cause significant error
 Rotational temperatures (Kelvin)      0.08358     0.01942     0.01659
 Rotational constants (GHZ):           1.74144     0.40458     0.34578
 Zero-point vibrational energy     472935.6 (Joules/Mol)
                                  113.03433 (Kcal/Mol)
 Warning -- explicit consideration of  13 degrees of freedom as
           vibrations may cause significant error
 Vibrational temperatures:     59.85    92.34   137.08   197.23   307.24
          (Kelvin)            339.74   414.08   544.54   563.78   604.75
                              644.25   662.25   831.76   908.97   937.92
                              982.29  1006.90  1031.56  1056.57  1100.24
                             1158.72  1241.71  1253.40  1299.77  1364.08
                             1383.53  1414.75  1425.11  1436.87  1450.95
                             1456.66  1465.56  1521.53  1580.46  1603.20
                             1611.17  1694.29  1720.00  1745.88  1803.34
                             1859.83  1878.96  1944.01  1964.43  1969.25
                             2092.15  2148.82  2209.75  2215.32  2314.27
                             2353.66  2369.75  2384.73  2511.56  4567.43
                             4574.28  4585.56  4600.95  4615.33  4628.52
                             4634.42  4639.92  4644.93

 Zero-point correction=                           0.180132 (Hartree/Particle)
 Thermal correction to Energy=                    0.190756
 Thermal correction to Enthalpy=                  0.191700
 Thermal correction to Gibbs Free Energy=         0.142508
 Sum of electronic and zero-point Energies=           -592.486352
 Sum of electronic and thermal Energies=              -592.475728
 Sum of electronic and thermal Enthalpies=            -592.474783
 Sum of electronic and thermal Free Energies=         -592.523976

                     E (Thermal)             CV                S
                      KCal/Mol        Cal/Mol-Kelvin    Cal/Mol-Kelvin
 Total                  119.701             41.589            103.535
 Electronic               0.000              0.000              0.000
 Translational            0.889              2.981             41.520
 Rotational               0.889              2.981             31.557
 Vibrational            117.924             35.628             30.458
 Vibration     1          0.594              1.981              5.181
 Vibration     2          0.597              1.971              4.324
 Vibration     3          0.603              1.953              3.549
 Vibration     4          0.614              1.916              2.844
 Vibration     5          0.644              1.820              2.013
 Vibration     6          0.655              1.785              1.832
 Vibration     7          0.685              1.696              1.487
 Vibration     8          0.749              1.516              1.045
 Vibration     9          0.759              1.488              0.993
 Vibration    10          0.783              1.426              0.891
 Vibration    11          0.807              1.366              0.803
 Vibration    12          0.818              1.338              0.765
 Vibration    13          0.935              1.079              0.489

 Optimization completed.
    -- Stationary point found.
 Normal termination of Gaussian 16 at Sat Nov 16 07:05:14 2024.
