 Gaussian 16, Revision A.03,
 Gaussian 16:  EM64M-G16RevA.03 25-Dec-2016

 -------------------------------
 # freq opt=tight b3lyp 6-31g(d)
 -------------------------------

 ---------
 good luck
 ---------
 Symbolic Z-matrix:
 Charge =  0 Multiplicity = 1

 SCF Done:  E(RB3LYP) =  -592.664993053     A.U. after   15 cycles
 SCF Done:  E(RB3LYP) =  -592.667369289     A.U. after   13 cycles
 SCF Done:  E(RB3LYP) =  -592.667536200     A.U. after   13 cycles
 SCF Done:  E(RB3LYP) =  -592.667862013     A.U. after   13 cycles
 SCF Done:  E(RB3LYP) =  -592.667827412     A.U. after   11 cycles
 SCF Done:  E(RB3LYP) =  -592.667881365     A.U. after   11 cycles
 SCF Done:  E(RB3LYP) =  -592.667885301     A.U. after   10 cycles
 SCF Done:  E(RB3LYP) =  -592.667886035     A.U. after    9 cycles
 SCF Done:  E(RB3LYP) =  -592.667886106     A.U. after    7 cycles
 SCF Done:  E(RB3LYP) =  -592.667886122     A.U. after    6 cycles
 SCF Done:  E(RB3LYP) =  -592.667886124     A.U. after    5 cycles
 Optimization completed.
    -- Stationary point found.
 Normal termination of Gaussian 16 at Sat Nov 16 07:11:56 2024.

 --------------------------------------------------------------------
 #N Geom=AllCheck Guess=TCheck SCRF=Check GenChk RB3LYP/6-31G(d) Freq
 --------------------------------------------------------------------

 Structure from the checkpoint file:  "0.chk"
 ---------
 good luck
 ---------
 Charge =  0 Multiplicity = 1

                         Standard orientation:
 ---------------------------------------------------------------------
 Center     Atomic      Atomic             Coordinates (Angstroms)
 Number     Number       Type             X           Y           Z
 ---------------------------------------------------------------------
      1          8           0        0.022045    2.305093    0.015571
      2          6           0        0.008975    1.078831    0.013454
      3          6           0       -1.293323    0.339632    0.030586
      4          6           0       -1.440178   -0.941038    0.586221
      5          6           0       -2.694666   -1.550291    0.627951
      6          6           0       -3.809360   -0.892998    0.105497
      7          6           0       -3.672916    0.386041   -0.443490
      8          6           0       -2.426361    1.002830   -0.469065
      9          6           0        1.312935    0.335642   -0.009947
     10          6           0        2.451352    0.968462    0.509860
     11          6           0        3.675730    0.315845    0.445600
     12          6           0        3.726857   -0.943073   -0.160446
     13          7           0        2.662788   -1.553594   -0.694493
     14          6           0        1.486911   -0.919667   -0.612335
     15          1           0       -0.582309   -1.451709    1.011684
     16          1           0       -2.800397   -2.536789    1.070653
     17          1           0       -4.784183   -1.372704    0.130723
     18          1           0       -4.540976    0.901321   -0.845399
     19          1           0       -2.303879    2.002601   -0.872835
     20          1           0        2.349829    1.956040    0.948949
     21          1           0        4.576995    0.767705    0.849018
     22          1           0        4.669278   -1.484691   -0.225407
     23          1           0        0.644027   -1.428660   -1.073814
 ---------------------------------------------------------------------

 SCF Done:  E(RB3LYP) =  -592.667886124     A.U. after    1 cycles

 The electronic state is 1-A.
 Alpha  occ. eigenvalues --  -19.14075 -14.33925 -10.28291 -10.23510 -10.23486
 Alpha  occ. eigenvalues --  -10.21695 -10.21246 -10.20852 -10.20760 -10.20689
 Alpha  occ. eigenvalues --  -10.20611 -10.20299 -10.20182 -10.20121  -1.04023
 Alpha  occ. eigenvalues --   -0.94987  -0.86617  -0.81677  -0.78404  -0.76154
 Alpha  occ. eigenvalues --   -0.75627  -0.66857  -0.64059  -0.62518  -0.61320
 Alpha  occ. eigenvalues --   -0.56630  -0.53709  -0.51881  -0.49345  -0.47983
 Alpha  occ. eigenvalues --   -0.46241  -0.45494  -0.44141  -0.43278  -0.42698
 Alpha  occ. eigenvalues --   -0.41112  -0.40728  -0.39357  -0.38251  -0.36709
 Alpha  occ. eigenvalues --   -0.36090  -0.35187  -0.29416  -0.27523  -0.26947
 Alpha  occ. eigenvalues --   -0.26318  -0.26088  -0.24922
 Alpha virt. eigenvalues --   -0.07193  -0.02964  -0.02177  -0.01062   0.04774
 Alpha virt. eigenvalues --    0.08841   0.10253   0.13206   0.13967   0.14692
 Alpha virt. eigenvalues --    0.15236   0.15682   0.16911   0.17416   0.17989

 Mulliken charges:
               1
     1  O   -0.463688
     2  C    0.322111
     3  C    0.073138
     4  C   -0.176637
     5  C   -0.136428
     6  C   -0.117990
     7  C   -0.134776
     8  C   -0.149500
     9  C    0.051391
    10  C   -0.116840
    11  C   -0.145324
    12  C    0.048232
    13  N   -0.412462
    14  C   -0.002404
    15  H    0.151125
    16  H    0.140001
    17  H    0.139736
    18  H    0.140391
    19  H    0.161687
    20  H    0.172019
    21  H    0.146190
    22  H    0.149979
    23  H    0.160047
 Sum of Mulliken charges =   0.00000

 Dipole moment (field-independent basis, Debye):
    X=             -0.5786    Y=             -1.0673    Z=              0.9528  Tot=              1.5433
 Quadrupole moment (field-independent basis, Debye-Ang):
   XX=            -62.7852   YY=            -85.3520   ZZ=            -80.6348
   XY=              5.5318   XZ=              5.0848   YZ=             -2.8546

  Exact polarizability: 194.129   1.726 126.085  12.525  -2.284  62.678
 Approx polarizability: 274.905   1.328 244.167  23.286  -1.409 105.165

                      1                      2                      3
                      A                      A                      A
 Frequencies --     44.1281                65.3476                95.4742
 Red. masses --      4.7970                 4.3759                 5.0786
 Frc consts  --      0.0055                 0.0110                 0.0273
 IR Inten    --      2.7012                 1.2430                 0.7747

                      4                      5                      6
                      A                      A                      A
 Frequencies --    138.4022               216.1430               236.5727
 Red. masses --      6.1189                 4.7296                 5.1548
 Frc consts  --      0.0691                 0.1302                 0.1700
 IR Inten    --      3.0095                 0.1783                 7.1617

                      7                      8                      9
                      A                      A                      A
 Frequencies --    292.7927               376.4413               406.9594
 Red. masses --      5.6740                 5.9098                 3.2217
 Frc consts  --      0.2866                 0.4934                 0.3144
 IR Inten    --      0.3285                 6.4205                 1.0130

                     10                     11                     12
                      A                      A                      A
 Frequencies --    421.6541               442.2250               450.7757
 Red. masses --      3.0775                 5.2137                 4.3411
 Frc consts  --      0.3224                 0.6007                 0.5197
 IR Inten    --      0.2701                 1.5214                 1.4903

                     13                     14                     15
                      A                      A                      A
 Frequencies --    573.0995               629.0633               632.6784
 Red. masses --      5.7652                 7.5659                 6.7145
 Frc consts  --      1.1156                 1.7640                 1.5835
 IR Inten    --      1.7174                 3.0392                 1.3147

                     16                     17                     18
                      A                      A                      A
 Frequencies --    669.6045               703.7656               721.6817
 Red. masses --      6.6039                 3.7214                 2.0060
 Frc consts  --      1.7446                 1.0860                 0.6156
 IR Inten    --     29.7952                 3.6016                24.6868

                     19                     20                     21
                      A                      A                      A
 Frequencies --    729.3494               751.6808               801.8489
 Red. masses --      1.7532                 5.3049                 1.9728
 Frc consts  --      0.5495                 1.7660                 0.7474
 IR Inten    --     61.3036                 3.7871                 6.7485

                     22                     23                     24
                      A                      A                      A
 Frequencies --    851.0123               869.3584               942.6351
 Red. masses --      2.1171                 1.2498                 2.9062
 Frc consts  --      0.9034                 0.5565                 1.5214
 IR Inten    --      5.9147                 2.3919                54.0443

                     25                     26                     27
                      A                      A                      A
 Frequencies --    957.9534               963.2724               983.3929
 Red. masses --      1.9331                 1.3194                 1.3571
 Frc consts  --      1.0452                 0.7213                 0.7733
 IR Inten    --     18.8187                 2.3949                 1.4725

                     28                     29                     30
                      A                      A                      A
 Frequencies --    993.2359              1006.7697              1008.2082
 Red. masses --      1.4629                 1.3156                 1.3278
 Frc consts  --      0.8503                 0.7856                 0.7952
 IR Inten    --      2.3569                 0.6540                 3.9443

                     31                     32                     33
                      A                      A                      A
 Frequencies --   1018.4748              1041.6992              1057.2599
 Red. masses --      6.0930                 4.3651                 2.2543
 Frc consts  --      3.7237                 2.7908                 1.4847
 IR Inten    --      1.4534                 8.8283                 1.3319

                     34                     35                     36
                      A                      A                      A
 Frequencies --   1070.6400              1115.0178              1145.6593
 Red. masses --      2.4977                 1.5674                 1.4459
 Frc consts  --      1.6869                 1.1481                 1.1181
 IR Inten    --      2.0754                 3.7707                11.8341

                     37                     38                     39
                      A                      A                      A
 Frequencies --   1180.4711              1195.2501              1213.6082
 Red. masses --      2.8937                 1.1077                 1.1670
 Frc consts  --      2.3758                 0.9323                 1.0127
 IR Inten    --     11.5435                 0.0787                13.9427

                     40                     41                     42
                      A                      A                      A
 Frequencies --   1235.3733              1300.0005              1318.1838
 Red. masses --      1.4761                 4.2490                 6.3231
 Frc consts  --      1.3273                 4.2309                 6.4734
 IR Inten    --      6.4870               169.9173               108.3724

                     43                     44                     45
                      A                      A                      A
 Frequencies --   1351.1099              1368.0021              1376.1639
 Red. masses --      2.2652                 2.4680                 1.3156
 Frc consts  --      2.4363                 2.7213                 1.4679
 IR Inten    --     36.2240                 4.3500                 7.7558

                     46                     47                     48
                      A                      A                      A
 Frequencies --   1459.9700              1493.2084              1523.1920
 Red. masses --      2.2108                 2.2328                 2.1585
 Frc consts  --      2.7764                 2.9332                 2.9506
 IR Inten    --     39.1528                14.2839                 1.5940

                     49                     50                     51
                      A                      A                      A
 Frequencies --   1539.1726              1620.4508              1635.7832
 Red. masses --      2.1917                 5.0029                 5.3464
 Frc consts  --      3.0591                 7.7401                 8.4288
 IR Inten    --      1.3719                 7.5641                 9.4905

                     52                     53                     54
                      A                      A                      A
 Frequencies --   1642.8243              1657.6625              1738.6900
 Red. masses --      5.6412                 5.4820                12.3014
 Frc consts  --      8.9703                 8.8753                21.9104
 IR Inten    --     63.0862                26.7248               154.6522

                     55                     56                     57
                      A                      A                      A
 Frequencies --   3175.1054              3186.5871              3192.0850
 Red. masses --      1.0890                 1.0856                 1.0905
 Frc consts  --      6.4682                 6.4948                 6.5467
 IR Inten    --     24.3265                 0.2342                18.1334

                     58                     59                     60
                      A                      A                      A
 Frequencies --   3197.5433              3207.4270              3207.7682
 Red. masses --      1.0893                 1.0932                 1.0911
 Frc consts  --      6.5620                 6.6260                 6.6151
 IR Inten    --     11.7949                19.6317                17.9786

                     61                     62                     63
                      A                      A                      A
 Frequencies --   3217.7350              3224.4392              3224.8697
 Red. masses --      1.0943                 1.0938                 1.0947
 Frc consts  --      6.6755                 6.7003                 6.7078
 IR Inten    --     10.0675                11.8912                 2.6543

 - Thermochemistry -
 -------------------
 Temperature   298.150 Kelvin.  Pressure   1.00000 Atm.
 Atom     1 has atomic number  8 and mass  15.99491

 Molecular mass:   183.06841 amu.
 Principal axes and moments of inertia in atomic units:
                           1         2         3
     Eigenvalues --  1047.229224393.406735172.46077
           X            0.99997   0.00655   0.00509
           Y           -0.00649   0.99992  -0.01129
           Z           -0.00517   0.01126   0.99992
 This molecule is an asymmetric top.
 Rotational symmetry number  1.
 Warning -- assumption of classical behavior for rotation
           may cause significant error
 Rotational temperatures (Kelvin)      0.08271     0.01971     0.01675
 Rotational constants (GHZ):           1.72335     0.41078     0.34891
 Zero-point vibrational energy     473164.7 (Joules/Mol)
                                  113.08907 (Kcal/Mol)
 Warning -- explicit consideration of  13 degrees of freedom as
           vibrations may cause significant error
 Vibrational temperatures:     63.49    94.02   137.37   199.13   310.98
          (Kelvin)            340.38   421.26   541.62   585.52   606.67
                              636.26   648.57   824.56   905.08   910.28
                              963.41  1012.56  1038.34  1049.37  1081.50
                             1153.68  1224.42  1250.81  1356.24  1378.28
                             1385.93  1414.88  1429.04  1448.52  1450.59
                             1465.36  1498.77  1521.16  1540.41  1604.26
                             1648.35  1698.43  1719.70  1746.11  1777.43
                             1870.41  1896.57  1943.95  1968.25  1979.99
                             2100.57  2148.39  2191.53  2214.53  2331.47
                             2353.53  2363.66  2385.01  2501.59  4568.27
                             4584.79  4592.70  4600.55  4614.77  4615.26
                             4629.60  4639.25  4639.87

 Zero-point correction=                           0.180219 (Hartree/Particle)
 Thermal correction to Energy=                    0.190833
 Thermal correction to Enthalpy=                  0.191777
 Thermal correction to Gibbs Free Energy=         0.142684
 Sum of electronic and zero-point Energies=           -592.487667
 Sum of electronic and thermal Energies=              -592.477053
 Sum of electronic and thermal Enthalpies=            -592.476109
 Sum of electronic and thermal Free Energies=         -592.525202

                     E (Thermal)             CV                S
                      KCal/Mol        Cal/Mol-Kelvin    Cal/Mol-Kelvin
 Total                  119.749             41.592            103.326
 Electronic               0.000              0.000              0.000
 Translational            0.889              2.981             41.520
 Rotational               0.889              2.981             31.543
 Vibrational            117.972             35.630             30.262
 Vibration     1          0.595              1.980              5.065
 Vibration     2          0.597              1.971              4.289
 Vibration     3          0.603              1.952              3.545
 Vibration     4          0.614              1.915              2.826
 Vibration     5          0.645              1.816              1.991
 Vibration     6          0.655              1.785              1.829
 Vibration     7          0.688              1.687              1.458
 Vibration     8          0.747              1.520              1.053
 Vibration     9          0.772              1.455              0.937
 Vibration    10          0.784              1.423              0.886
 Vibration    11          0.802              1.378              0.820
 Vibration    12          0.810              1.359              0.793
 Vibration    13          0.929              1.089              0.498

                           ! Non-Optimized Parameters !
 Normal termination of Gaussian 16 at Sat Nov 16 07:13:06 2024.
