 Gaussian 16, Revision A.03,
 Gaussian 16:  EM64M-G16RevA.03 25-Dec-2016

 -------------------------------
 # freq opt=tight b3lyp 6-31g(d)
 -------------------------------

 ---------
 good luck
 ---------
 Symbolic Z-matrix:
 Charge =  0 Multiplicity = 1

 SCF Done:  E(RB3LYP) =  -592.664279707     A.U. after   15 cycles
 SCF Done:  E(RB3LYP) =  -592.666511253     A.U. after   13 cycles
 SCF Done:  E(RB3LYP) =  -592.666699689     A.U. after   13 cycles
 SCF Done:  E(RB3LYP) =  -592.666960991     A.U. after   12 cycles
 SCF Done:  E(RB3LYP) =  -592.666931140     A.U. after   11 cycles
 SCF Done:  E(RB3LYP) =  -592.666984561     A.U. after   11 cycles
 SCF Done:  E(RB3LYP) =  -592.666990106     A.U. after   10 cycles
 SCF Done:  E(RB3LYP) =  -592.666990947     A.U. after    9 cycles
 SCF Done:  E(RB3LYP) =  -592.666991045     A.U. after    8 cycles
 SCF Done:  E(RB3LYP) =  -592.666991065     A.U. after    6 cycles
 SCF Done:  E(RB3LYP) =  -592.666991068     A.U. after    5 cycles
 SCF Done:  E(RB3LYP) =  -592.666991068     A.U. after    5 cycles
 SCF Done:  E(RB3LYP) =  -592.666991068     A.U. after    5 cycles
 SCF Done:  E(RB3LYP) =  -592.666991068     A.U. after    5 cycles
 Optimization completed.
    -- Stationary point found.
 Normal termination of Gaussian 16 at Sat Nov 16 07:20:05 2024.

 --------------------------------------------------------------------
 #N Geom=AllCheck Guess=TCheck SCRF=Check GenChk RB3LYP/6-31G(d) Freq
 --------------------------------------------------------------------

 Structure from the checkpoint file:  "1.chk"
 ---------
 good luck
 ---------
 Charge =  0 Multiplicity = 1

                         Standard orientation:
 ---------------------------------------------------------------------
 Center     Atomic      Atomic             Coordinates (Angstroms)
 Number     Number       Type             X           Y           Z
 ---------------------------------------------------------------------
      1          8           0       -0.022627    2.298186    0.015061
      2          6           0       -0.006841    1.072695    0.008657
      3          6           0        1.297575    0.335004   -0.023072
      4          6           0        2.434327    0.997718    0.468100
      5          6           0        3.680915    0.381189    0.431482
      6          6           0        3.813171   -0.897342   -0.119585
      7          6           0        2.694215   -1.554468   -0.633334
      8          6           0        1.440037   -0.945264   -0.580620
      9          6           0       -1.304716    0.320443    0.035253
     10          6           0       -1.480129   -0.921890    0.657255
     11          6           0       -2.751880   -1.490860    0.678737
     12          6           0       -3.800141   -0.802213    0.068136
     13          7           0       -3.658004    0.388957   -0.531227
     14          6           0       -2.438553    0.930772   -0.528810
     15          1           0        2.314775    1.997370    0.873152
     16          1           0        4.552337    0.896624    0.825847
     17          1           0        4.787974   -1.376511   -0.153928
     18          1           0        2.797119   -2.539977   -1.079092
     19          1           0        0.578400   -1.454416   -1.000739
     20          1           0       -0.643700   -1.422594    1.135286
     21          1           0       -2.930164   -2.446287    1.162962
     22          1           0       -4.805184   -1.221007    0.063441
     23          1           0       -2.332398    1.903906   -1.002024
 ---------------------------------------------------------------------

 SCF Done:  E(RB3LYP) =  -592.666991068     A.U. after    1 cycles

 The electronic state is 1-A.
 Alpha  occ. eigenvalues --  -19.14115 -14.33810 -10.28333 -10.23443 -10.23126
 Alpha  occ. eigenvalues --  -10.22211 -10.21289 -10.21009 -10.20909 -10.20857
 Alpha  occ. eigenvalues --  -10.20777 -10.20502 -10.20339 -10.20265  -1.04072
 Alpha  occ. eigenvalues --   -0.94876  -0.86793  -0.82056  -0.77952  -0.76473
 Alpha  occ. eigenvalues --   -0.75821  -0.66907  -0.64068  -0.62742  -0.61554
 Alpha  occ. eigenvalues --   -0.56859  -0.53603  -0.51826  -0.49346  -0.48064
 Alpha  occ. eigenvalues --   -0.46382  -0.45295  -0.44341  -0.43447  -0.42812
 Alpha  occ. eigenvalues --   -0.41404  -0.41133  -0.39331  -0.37908  -0.36924
 Alpha  occ. eigenvalues --   -0.36365  -0.35418  -0.29606  -0.27587  -0.26799
 Alpha  occ. eigenvalues --   -0.26537  -0.26056  -0.24798
 Alpha virt. eigenvalues --   -0.07158  -0.03333  -0.01936  -0.01287   0.04648
 Alpha virt. eigenvalues --    0.08674   0.09796   0.13179   0.13767   0.14689
 Alpha virt. eigenvalues --    0.15143   0.15837   0.16735   0.17373   0.17777

 Mulliken charges:
               1
     1  O   -0.458794
     2  C    0.322009
     3  C    0.072122
     4  C   -0.149929
     5  C   -0.134682
     6  C   -0.118349
     7  C   -0.136428
     8  C   -0.178505
     9  C    0.047654
    10  C   -0.141799
    11  C   -0.148064
    12  C    0.049093
    13  N   -0.410429
    14  C    0.027328
    15  H    0.162903
    16  H    0.141020
    17  H    0.139862
    18  H    0.138771
    19  H    0.148201
    20  H    0.160913
    21  H    0.144575
    22  H    0.149781
    23  H    0.172746
 Sum of Mulliken charges =   0.00000

 Dipole moment (field-independent basis, Debye):
    X=              2.0952    Y=             -3.9306    Z=              0.8889  Tot=              4.5420
 Quadrupole moment (field-independent basis, Debye-Ang):
   XX=            -74.6613   YY=            -79.9113   ZZ=            -80.0683
   XY=              4.7542   XZ=             -2.0377   YZ=              0.5581

  Exact polarizability: 189.201   2.295 128.372  10.015   0.872  63.924
 Approx polarizability: 273.325   0.312 242.671  23.350   0.793 107.207

                      1                      2                      3
                      A                      A                      A
 Frequencies --     42.6039                64.7988                95.8083
 Red. masses --      5.3799                 4.4689                 4.5102
 Frc consts  --      0.0058                 0.0111                 0.0244
 IR Inten    --      0.1448                 0.5178                 0.3960

                      4                      5                      6
                      A                      A                      A
 Frequencies --    138.9838               213.9615               236.0857
 Red. masses --      5.9613                 4.6733                 5.2567
 Frc consts  --      0.0678                 0.1261                 0.1726
 IR Inten    --      2.7667                 0.7282                 2.8785

                      7                      8                      9
                      A                      A                      A
 Frequencies --    287.4306               373.9377               406.7348
 Red. masses --      6.1023                 5.4465                 3.4225
 Frc consts  --      0.2970                 0.4487                 0.3336
 IR Inten    --      0.4072                 8.0375                 1.8597

                     10                     11                     12
                      A                      A                      A
 Frequencies --    421.2434               441.8521               452.2607
 Red. masses --      3.0759                 5.1930                 4.2344
 Frc consts  --      0.3216                 0.5973                 0.5103
 IR Inten    --      0.2254                 2.6800                 1.2752

                     13                     14                     15
                      A                      A                      A
 Frequencies --    577.4045               631.0378               632.2814
 Red. masses --      5.9635                 7.3474                 6.6334
 Frc consts  --      1.1714                 1.7238                 1.5625
 IR Inten    --      1.5548                 1.8127                 0.4250

                     16                     17                     18
                      A                      A                      A
 Frequencies --    667.4649               703.6176               720.1335
 Red. masses --      6.6454                 3.8489                 1.9936
 Frc consts  --      1.7443                 1.1227                 0.6091
 IR Inten    --     30.9867                 3.6480                21.3880

                     19                     20                     21
                      A                      A                      A
 Frequencies --    730.7233               750.2791               801.5930
 Red. masses --      1.7009                 5.7397                 1.8778
 Frc consts  --      0.5351                 1.9036                 0.7109
 IR Inten    --     63.7510                 1.3734                 8.2444

                     22                     23                     24
                      A                      A                      A
 Frequencies --    844.8175               869.9283               939.5398
 Red. masses --      2.1219                 1.2524                 3.6912
 Frc consts  --      0.8923                 0.5584                 1.9198
 IR Inten    --      6.1391                 1.7627                69.2277

                     25                     26                     27
                      A                      A                      A
 Frequencies --    954.8428               964.7275               982.1083
 Red. masses --      1.5330                 1.4777                 1.3614
 Frc consts  --      0.8235                 0.8103                 0.7737
 IR Inten    --      6.3608                17.8020                 0.8324

                     28                     29                     30
                      A                      A                      A
 Frequencies --    990.8217              1003.6710              1007.7674
 Red. masses --      1.4592                 1.3722                 1.2793
 Frc consts  --      0.8440                 0.8144                 0.7655
 IR Inten    --      6.1155                 1.1072                 1.4118

                     31                     32                     33
                      A                      A                      A
 Frequencies --   1018.4858              1042.1723              1057.2353
 Red. masses --      6.0540                 4.3127                 2.2644
 Frc consts  --      3.7000                 2.7598                 1.4912
 IR Inten    --      1.5799                10.6052                 1.5774

                     34                     35                     36
                      A                      A                      A
 Frequencies --   1071.3760              1114.6822              1150.9227
 Red. masses --      2.5431                 1.5651                 1.4954
 Frc consts  --      1.7199                 1.1458                 1.1671
 IR Inten    --      2.0296                 3.5058                 5.9844

                     37                     38                     39
                      A                      A                      A
 Frequencies --   1179.8248              1195.1526              1213.3077
 Red. masses --      2.7900                 1.1070                 1.1715
 Frc consts  --      2.2882                 0.9316                 1.0161
 IR Inten    --     13.4293                 0.0715                13.5850

                     40                     41                     42
                      A                      A                      A
 Frequencies --   1237.6180              1300.9828              1309.1345
 Red. masses --      1.4053                 3.9283                 6.9322
 Frc consts  --      1.2682                 3.9174                 6.9999
 IR Inten    --     10.1523               273.4249                 0.3267

                     43                     44                     45
                      A                      A                      A
 Frequencies --   1350.7115              1367.8272              1373.9684
 Red. masses --      2.2199                 2.4451                 1.3074
 Frc consts  --      2.3862                 2.6954                 1.4542
 IR Inten    --     24.5256                 4.2938                13.7378

                     46                     47                     48
                      A                      A                      A
 Frequencies --   1462.2384              1493.1356              1518.8076
 Red. masses --      2.4449                 2.2304                 2.1435
 Frc consts  --      3.0800                 2.9297                 2.9133
 IR Inten    --     15.3887                15.4503                 1.6357

                     49                     50                     51
                      A                      A                      A
 Frequencies --   1538.7041              1621.9082              1635.8450
 Red. masses --      2.1778                 4.9262                 5.3590
 Frc consts  --      3.0380                 7.6351                 8.4493
 IR Inten    --      0.7673                23.4264                 8.0237

                     52                     53                     54
                      A                      A                      A
 Frequencies --   1641.8477              1657.5295              1742.1209
 Red. masses --      5.6492                 5.4738                12.2868
 Frc consts  --      8.9723                 8.8606                21.9707
 IR Inten    --     57.7412                26.2523               158.1877

                     55                     56                     57
                      A                      A                      A
 Frequencies --   3175.9780              3186.2433              3196.6201
 Red. masses --      1.0890                 1.0855                 1.0890
 Frc consts  --      6.4717                 6.4929                 6.5566
 IR Inten    --     20.9684                 0.0964                 9.2777

                     58                     59                     60
                      A                      A                      A
 Frequencies --   3201.6376              3204.0103              3206.9809
 Red. masses --      1.0903                 1.0904                 1.0928
 Frc consts  --      6.5847                 6.5954                 6.6217
 IR Inten    --     11.5116                21.1100                16.9436

                     61                     62                     63
                      A                      A                      A
 Frequencies --   3215.3505              3218.8906              3224.3348
 Red. masses --      1.0954                 1.0956                 1.0936
 Frc consts  --      6.6721                 6.6882                 6.6986
 IR Inten    --      7.4739                13.5370                 6.4173

 - Thermochemistry -
 -------------------
 Temperature   298.150 Kelvin.  Pressure   1.00000 Atm.
 Atom     1 has atomic number  8 and mass  15.99491

 Molecular mass:   183.06841 amu.
 Principal axes and moments of inertia in atomic units:
                           1         2         3
     Eigenvalues --  1031.295314444.846835195.23896
           X            0.99999   0.00369  -0.00054
           Y           -0.00369   0.99999   0.00199
           Z            0.00055  -0.00199   1.00000
 This molecule is an asymmetric top.
 Rotational symmetry number  1.
 Warning -- assumption of classical behavior for rotation
           may cause significant error
 Rotational temperatures (Kelvin)      0.08399     0.01949     0.01667
 Rotational constants (GHZ):           1.74998     0.40603     0.34738
 Zero-point vibrational energy     472967.8 (Joules/Mol)
                                  113.04202 (Kcal/Mol)
 Warning -- explicit consideration of  13 degrees of freedom as
           vibrations may cause significant error
 Vibrational temperatures:     61.30    93.23   137.85   199.97   307.84
          (Kelvin)            339.67   413.55   538.01   585.20   606.08
                              635.73   650.70   830.76   907.92   909.71
                              960.33  1012.35  1036.11  1051.35  1079.48
                             1153.31  1215.50  1251.63  1351.79  1373.81
                             1388.03  1413.03  1425.57  1444.06  1449.95
                             1465.37  1499.45  1521.13  1541.47  1603.78
                             1655.92  1697.50  1719.56  1745.68  1780.66
                             1871.82  1883.55  1943.37  1968.00  1976.83
                             2103.83  2148.29  2185.23  2213.85  2333.56
                             2353.62  2362.25  2384.82  2506.52  4569.52
                             4584.29  4599.22  4606.44  4609.86  4614.13
                             4626.17  4631.27  4639.10

 Zero-point correction=                           0.180144 (Hartree/Particle)
 Thermal correction to Energy=                    0.190775
 Thermal correction to Enthalpy=                  0.191719
 Thermal correction to Gibbs Free Energy=         0.142561
 Sum of electronic and zero-point Energies=           -592.486847
 Sum of electronic and thermal Energies=              -592.476216
 Sum of electronic and thermal Enthalpies=            -592.475272
 Sum of electronic and thermal Free Energies=         -592.524430

                     E (Thermal)             CV                S
                      KCal/Mol        Cal/Mol-Kelvin    Cal/Mol-Kelvin
 Total                  119.713             41.627            103.463
 Electronic               0.000              0.000              0.000
 Translational            0.889              2.981             41.520
 Rotational               0.889              2.981             31.544
 Vibrational            117.936             35.665             30.399
 Vibration     1          0.595              1.980              5.134
 Vibration     2          0.597              1.971              4.305
 Vibration     3          0.603              1.952              3.538
 Vibration     4          0.615              1.914              2.818
 Vibration     5          0.644              1.820              2.010
 Vibration     6          0.655              1.786              1.832
 Vibration     7          0.685              1.697              1.489
 Vibration     8          0.745              1.526              1.064
 Vibration     9          0.772              1.456              0.938
 Vibration    10          0.784              1.424              0.888
 Vibration    11          0.802              1.379              0.821
 Vibration    12          0.811              1.356              0.789
 Vibration    13          0.934              1.080              0.490

 Optimization completed.
    -- Stationary point found.
 Normal termination of Gaussian 16 at Sat Nov 16 07:21:13 2024.
