 Gaussian 16, Revision A.03,
 Gaussian 16:  EM64M-G16RevA.03 25-Dec-2016

 -------------------------------
 # freq opt=tight b3lyp 6-31g(d)
 -------------------------------

 ---------
 good luck
 ---------
 Symbolic Z-matrix:
 Charge =  0 Multiplicity = 1

 SCF Done:  E(RB3LYP) =  -384.895078168     A.U. after   15 cycles
 SCF Done:  E(RB3LYP) =  -384.895938383     A.U. after   11 cycles
 SCF Done:  E(RB3LYP) =  -384.895984499     A.U. after    9 cycles
 SCF Done:  E(RB3LYP) =  -384.895985303     A.U. after    8 cycles
 SCF Done:  E(RB3LYP) =  -384.895985389     A.U. after    7 cycles
 SCF Done:  E(RB3LYP) =  -384.895985389     A.U. after    6 cycles
 SCF Done:  E(RB3LYP) =  -384.895985393     A.U. after    6 cycles
 SCF Done:  E(RB3LYP) =  -384.895985396     A.U. after    5 cycles
 Optimization completed.
    -- Stationary point found.
 Normal termination of Gaussian 16 at Thu Nov 14 16:35:31 2024.

 --------------------------------------------------------------------
 #N Geom=AllCheck Guess=TCheck SCRF=Check GenChk RB3LYP/6-31G(d) Freq
 --------------------------------------------------------------------

 Structure from the checkpoint file:  "0.chk"
 ---------
 good luck
 ---------
 Charge =  0 Multiplicity = 1

                         Standard orientation:
 ---------------------------------------------------------------------
 Center     Atomic      Atomic             Coordinates (Angstroms)
 Number     Number       Type             X           Y           Z
 ---------------------------------------------------------------------
      1          6           0       -2.562092    1.047448    0.000003
      2          6           0       -1.697711   -0.203592    0.000003
      3          8           0       -2.212681   -1.311531   -0.000007
      4          6           0       -0.205203   -0.054008    0.000002
      5          6           0        0.432444    1.195675   -0.000001
      6          6           0        1.824926    1.277601   -0.000003
      7          6           0        2.592944    0.111865   -0.000001
      8          6           0        1.966027   -1.138171    0.000002
      9          6           0        0.577249   -1.219804    0.000003
     10          1           0       -3.610982    0.746399    0.000016
     11          1           0       -2.362279    1.665779   -0.883342
     12          1           0       -2.362260    1.665795    0.883333
     13          1           0       -0.153283    2.109831   -0.000003
     14          1           0        2.309683    2.250052   -0.000005
     15          1           0        3.677869    0.176473   -0.000002
     16          1           0        2.563109   -2.046099    0.000003
     17          1           0        0.068090   -2.178064    0.000005
 ---------------------------------------------------------------------

 SCF Done:  E(RB3LYP) =  -384.895985396     A.U. after    1 cycles

 The electronic state is 1-A.
 Alpha  occ. eigenvalues --  -19.13401 -10.27535 -10.20448 -10.20357 -10.20128
 Alpha  occ. eigenvalues --  -10.20061 -10.19854 -10.19661 -10.18930  -1.03342
 Alpha  occ. eigenvalues --   -0.86251  -0.77334  -0.75390  -0.73065  -0.63028
 Alpha  occ. eigenvalues --   -0.61069  -0.55346  -0.51269  -0.46678  -0.45867
 Alpha  occ. eigenvalues --   -0.44933  -0.44247  -0.42939  -0.41230  -0.39238
 Alpha  occ. eigenvalues --   -0.37922  -0.36073  -0.35080  -0.34880  -0.26110
 Alpha  occ. eigenvalues --   -0.25754  -0.24707
 Alpha virt. eigenvalues --   -0.05415  -0.00859   0.04081   0.08535   0.11207
 Alpha virt. eigenvalues --    0.14223   0.15319   0.15850   0.16029   0.17879
 Alpha virt. eigenvalues --    0.18486   0.19365   0.22181   0.26781   0.28969

 Mulliken charges:
               1
     1  C   -0.543342
     2  C    0.407824
     3  O   -0.452182
     4  C    0.076578
     5  C   -0.182348
     6  C   -0.132207
     7  C   -0.120036
     8  C   -0.130784
     9  C   -0.158667
    10  H    0.181756
    11  H    0.170721
    12  H    0.170720
    13  H    0.134812
    14  H    0.135912
    15  H    0.137776
    16  H    0.138499
    17  H    0.164968
 Sum of Mulliken charges =  -0.00000

 Dipole moment (field-independent basis, Debye):
    X=              1.8646    Y=              2.3463    Z=              0.0000  Tot=              2.9970
 Quadrupole moment (field-independent basis, Debye-Ang):
   XX=            -50.3142   YY=            -50.0878   ZZ=            -54.0961
   XY=             -6.1424   XZ=             -0.0000   YZ=             -0.0000

  Exact polarizability: 114.635   1.310  91.556  -0.000  -0.000  35.580
 Approx polarizability: 174.840  12.454 161.319   0.000  -0.000  53.734

                      1                      2                      3
                      A                      A                      A
 Frequencies --     65.3752               154.7246               164.2587
 Red. masses --      3.9942                 3.6037                 1.0933
 Frc consts  --      0.0101                 0.0508                 0.0174
 IR Inten    --      3.1989                 0.1038                 0.2229

                      4                      5                      6
                      A                      A                      A
 Frequencies --    218.6455               365.9039               415.5985
 Red. masses --      3.8743                 4.4796                 2.9681
 Frc consts  --      0.1091                 0.3534                 0.3020
 IR Inten    --      4.7821                 0.8092                 0.0027

                      7                      8                      9
                      A                      A                      A
 Frequencies --    432.0555               465.9854               594.8905
 Red. masses --      3.4016                 4.5493                 4.4030
 Frc consts  --      0.3741                 0.5820                 0.9181
 IR Inten    --      0.0053                 0.7073                25.7428

                     10                     11                     12
                      A                      A                      A
 Frequencies --    603.5826               632.2409               706.8860
 Red. masses --      2.4929                 6.4010                 1.9137
 Frc consts  --      0.5351                 1.5075                 0.5634
 IR Inten    --      8.7853                 1.0310                25.8942

                     13                     14                     15
                      A                      A                      A
 Frequencies --    743.4619               779.2857               866.7348
 Red. masses --      5.0893                 1.6654                 1.2482
 Frc consts  --      1.6574                 0.5959                 0.5525
 IR Inten    --      0.5279                29.2370                 0.1469

                     16                     17                     18
                      A                      A                      A
 Frequencies --    945.1379               965.9464               984.2505
 Red. masses --      1.3476                 2.2340                 1.3436
 Frc consts  --      0.7092                 1.2281                 0.7669
 IR Inten    --      2.0835                30.5565                 0.3582

                     19                     20                     21
                      A                      A                      A
 Frequencies --   1009.0416              1018.9948              1053.0472
 Red. masses --      1.2795                 6.1596                 2.5075
 Frc consts  --      0.7676                 3.7683                 1.6383
 IR Inten    --      0.3912                 0.8312                 3.4705

                     22                     23                     24
                      A                      A                      A
 Frequencies --   1057.2087              1100.2934              1116.0563
 Red. masses --      1.8644                 2.1511                 1.5400
 Frc consts  --      1.2278                 1.5344                 1.1302
 IR Inten    --      1.4340                 1.0660                 5.1481

                     25                     26                     27
                      A                      A                      A
 Frequencies --   1193.9897              1211.3596              1289.7212
 Red. masses --      1.1054                 1.1453                 3.6194
 Frc consts  --      0.9285                 0.9902                 3.5471
 IR Inten    --      0.6163                14.8039               184.7483

                     28                     29                     30
                      A                      A                      A
 Frequencies --   1350.2081              1368.4493              1410.8197
 Red. masses --      1.7819                 3.2153                 1.3159
 Frc consts  --      1.9139                 3.5476                 1.5432
 IR Inten    --      6.2631                 2.8181                42.7275

                     31                     32                     33
                      A                      A                      A
 Frequencies --   1495.5131              1499.1433              1507.6981
 Red. masses --      2.2182                 1.0636                 1.0484
 Frc consts  --      2.9230                 1.4083                 1.4041
 IR Inten    --     18.1440                 8.9289                 9.4279

                     34                     35                     36
                      A                      A                      A
 Frequencies --   1540.1979              1639.2021              1659.0450
 Red. masses --      2.1749                 5.4309                 5.4685
 Frc consts  --      3.0398                 8.5978                 8.8683
 IR Inten    --      0.8352                 8.0586                20.1733

                     37                     38                     39
                      A                      A                      A
 Frequencies --   1779.0342              3052.9799              3112.3035
 Red. masses --     10.7206                 1.0383                 1.1000
 Frc consts  --     19.9912                 5.7019                 6.2776
 IR Inten    --    160.9039                 2.8657                10.0317

                     40                     41                     42
                      A                      A                      A
 Frequencies --   3169.6051              3184.4628              3194.8310
 Red. masses --      1.1012                 1.0854                 1.0890
 Frc consts  --      6.5180                 6.4849                 6.5488
 IR Inten    --     11.8767                 0.0584                10.6392

                     43                     44                     45
                      A                      A                      A
 Frequencies --   3205.0881              3214.1812              3226.0398
 Red. masses --      1.0928                 1.0951                 1.0928
 Frc consts  --      6.6141                 6.6655                 6.7010
 IR Inten    --     27.4350                14.4051                 5.2957

 - Thermochemistry -
 -------------------
 Temperature   298.150 Kelvin.  Pressure   1.00000 Atm.
 Atom     1 has atomic number  6 and mass  12.00000

 Molecular mass:   120.05751 amu.
 Principal axes and moments of inertia in atomic units:
                           1         2         3
     Eigenvalues --   490.353071490.728371969.84842
           X            0.99932  -0.03692  -0.00000
           Y            0.03692   0.99932  -0.00000
           Z            0.00000   0.00000   1.00000
 This molecule is an asymmetric top.
 Rotational symmetry number  1.
 Warning -- assumption of classical behavior for rotation
           may cause significant error
 Rotational temperatures (Kelvin)      0.17664     0.05810     0.04397
 Rotational constants (GHZ):           3.68049     1.21064     0.91618
 Zero-point vibrational energy     363446.3 (Joules/Mol)
                                   86.86575 (Kcal/Mol)
 Warning -- explicit consideration of  10 degrees of freedom as
           vibrations may cause significant error
 Vibrational temperatures:     94.06   222.61   236.33   314.58   526.45
          (Kelvin)            597.95   621.63   670.45   855.91   868.42
                              909.65  1017.05  1069.68  1121.22  1247.04
                             1359.84  1389.78  1416.12  1451.79  1466.11
                             1515.10  1521.09  1583.08  1605.76  1717.88
                             1742.88  1855.62  1942.65  1968.89  2029.85
                             2151.71  2156.93  2169.24  2216.00  2358.45
                             2387.00  2559.63  4392.56  4477.91  4560.35
                             4581.73  4596.65  4611.41  4624.49  4641.55

 Zero-point correction=                           0.138429 (Hartree/Particle)
 Thermal correction to Energy=                    0.146235
 Thermal correction to Enthalpy=                  0.147179
 Thermal correction to Gibbs Free Energy=         0.105730
 Sum of electronic and zero-point Energies=           -384.757556
 Sum of electronic and thermal Energies=              -384.749750
 Sum of electronic and thermal Enthalpies=            -384.748806
 Sum of electronic and thermal Free Energies=         -384.790256

                     E (Thermal)             CV                S
                      KCal/Mol        Cal/Mol-Kelvin    Cal/Mol-Kelvin
 Total                   91.764             29.536             87.238
 Electronic               0.000              0.000              0.000
 Translational            0.889              2.981             40.263
 Rotational               0.889              2.981             28.756
 Vibrational             89.986             23.574             18.219
 Vibration     1          0.597              1.971              4.288
 Vibration     2          0.620              1.897              2.613
 Vibration     3          0.623              1.886              2.500
 Vibration     4          0.646              1.813              1.970
 Vibration     5          0.739              1.542              1.097
 Vibration     6          0.779              1.436              0.907
 Vibration     7          0.793              1.400              0.852
 Vibration     8          0.823              1.326              0.749
 Vibration     9          0.953              1.043              0.459
 Vibration    10          0.962              1.024              0.444

 Optimization completed.
    -- Stationary point found.
 Normal termination of Gaussian 16 at Thu Nov 14 16:36:04 2024.
