 Gaussian 16, Revision A.03,
 Gaussian 16:  EM64M-G16RevA.03 25-Dec-2016

 -------------------------------
 # freq opt=tight b3lyp 6-31g(d)
 -------------------------------

 ---------
 good luck
 ---------
 Symbolic Z-matrix:
 Charge =  0 Multiplicity = 1

 SCF Done:  E(RB3LYP) =  -682.598810803     A.U. after   15 cycles
 SCF Done:  E(RB3LYP) =  -682.603646879     A.U. after   12 cycles
 SCF Done:  E(RB3LYP) =  -682.604112946     A.U. after   11 cycles
 SCF Done:  E(RB3LYP) =  -682.604149228     A.U. after   11 cycles
 SCF Done:  E(RB3LYP) =  -682.604152740     A.U. after    8 cycles
 SCF Done:  E(RB3LYP) =  -682.604152908     A.U. after    8 cycles
 SCF Done:  E(RB3LYP) =  -682.604153013     A.U. after    7 cycles
 SCF Done:  E(RB3LYP) =  -682.604153038     A.U. after    6 cycles
 SCF Done:  E(RB3LYP) =  -682.604153039     A.U. after    5 cycles
 Optimization completed.
    -- Stationary point found.
 Normal termination of Gaussian 16 at Fri Nov 15 21:27:15 2024.

 --------------------------------------------------------------------
 #N Geom=AllCheck Guess=TCheck SCRF=Check GenChk RB3LYP/6-31G(d) Freq
 --------------------------------------------------------------------

 Structure from the checkpoint file:  "0.chk"
 ---------
 good luck
 ---------
 Charge =  0 Multiplicity = 1

                         Standard orientation:
 ---------------------------------------------------------------------
 Center     Atomic      Atomic             Coordinates (Angstroms)
 Number     Number       Type             X           Y           Z
 ---------------------------------------------------------------------
      1          8           0       -1.041112    1.979326    0.000000
      2          6           0       -0.739969    0.802336   -0.000003
      3          6           0        0.660330    0.308426   -0.000001
      4          6           0        1.678851    1.277741   -0.000001
      5          6           0        3.014464    0.893454    0.000000
      6          6           0        3.349013   -0.464525    0.000000
      7          6           0        2.344051   -1.433799    0.000000
      8          6           0        1.003281   -1.054596   -0.000000
      9          6           0       -1.896084   -0.236690   -0.000000
     10          9           0       -3.084000    0.366012    0.000002
     11          9           0       -1.823458   -1.032378    1.091559
     12          9           0       -1.823462   -1.032379   -1.091558
     13          1           0        1.395090    2.324974   -0.000001
     14          1           0        3.796045    1.647809    0.000000
     15          1           0        4.392943   -0.766299    0.000001
     16          1           0        2.604263   -2.488301    0.000000
     17          1           0        0.235216   -1.818190   -0.000001
 ---------------------------------------------------------------------

 SCF Done:  E(RB3LYP) =  -682.604153039     A.U. after    1 cycles

 The electronic state is 1-A.
 Alpha  occ. eigenvalues --  -24.73659 -24.73659 -24.73465 -19.16865 -10.43970
 Alpha  occ. eigenvalues --  -10.30464 -10.22149 -10.21763 -10.21724 -10.21333
 Alpha  occ. eigenvalues --  -10.21188 -10.21128  -1.31423  -1.22784  -1.22603
 Alpha  occ. eigenvalues --   -1.06849  -0.87760  -0.78836  -0.76779  -0.73528
 Alpha  occ. eigenvalues --   -0.65822  -0.63128  -0.60887  -0.59275  -0.59102
 Alpha  occ. eigenvalues --   -0.55436  -0.51328  -0.47586  -0.47025  -0.46787
 Alpha  occ. eigenvalues --   -0.46059  -0.45518  -0.44198  -0.44144  -0.42493
 Alpha  occ. eigenvalues --   -0.41317  -0.40924  -0.40870  -0.37717  -0.37615
 Alpha  occ. eigenvalues --   -0.36259  -0.27910  -0.27506  -0.27213
 Alpha virt. eigenvalues --   -0.08243  -0.02061   0.01510   0.08239   0.12837
 Alpha virt. eigenvalues --    0.13575   0.13988   0.14545   0.17206   0.18481
 Alpha virt. eigenvalues --    0.20516   0.21269   0.21942   0.25299   0.28368

 Mulliken charges:
               1
     1  O   -0.436060
     2  C    0.285793
     3  C    0.067168
     4  C   -0.148043
     5  C   -0.133176
     6  C   -0.112652
     7  C   -0.138749
     8  C   -0.164004
     9  C    0.792818
    10  F   -0.244367
    11  F   -0.267949
    12  F   -0.267949
    13  H    0.170777
    14  H    0.146001
    15  H    0.145660
    16  H    0.145622
    17  H    0.159111
 Sum of Mulliken charges =  -0.00000

 Dipole moment (field-independent basis, Debye):
    X=              3.3951    Y=             -1.4837    Z=             -0.0000  Tot=              3.7052
 Quadrupole moment (field-independent basis, Debye-Ang):
   XX=            -59.8195   YY=            -65.0586   ZZ=            -67.1891
   XY=              1.8289   XZ=              0.0000   YZ=             -0.0000

  Exact polarizability: 115.846  -8.589  93.064   0.000   0.000  36.808
 Approx polarizability: 178.027 -20.833 168.389   0.000   0.000  57.703

                      1                      2                      3
                      A                      A                      A
 Frequencies --     41.0060                61.7299               143.4408
 Red. masses --      5.7635                 9.9759                 5.9752
 Frc consts  --      0.0057                 0.0224                 0.0724
 IR Inten    --      0.3894                 0.4976                 1.3611

                      4                      5                      6
                      A                      A                      A
 Frequencies --    145.3183               241.6541               267.1552
 Red. masses --      8.4879                10.6807                 6.8045
 Frc consts  --      0.1056                 0.3675                 0.2861
 IR Inten    --      0.2394                 2.5224                 6.6988

                      7                      8                      9
                      A                      A                      A
 Frequencies --    313.6780               389.9292               410.9430
 Red. masses --     10.9876                13.8748                 2.9328
 Frc consts  --      0.6370                 1.2429                 0.2918
 IR Inten    --      0.2183                 2.2175                 0.0013

                     10                     11                     12
                      A                      A                      A
 Frequencies --    444.7246               480.9772               519.2707
 Red. masses --      4.1710                12.3732                11.5640
 Frc consts  --      0.4860                 1.6865                 1.8372
 IR Inten    --      0.0039                 1.6280                 5.2651

                     13                     14                     15
                      A                      A                      A
 Frequencies --    601.4514               631.7198               677.9320
 Red. masses --     12.2822                 6.5301                 8.5398
 Frc consts  --      2.6178                 1.5354                 2.3124
 IR Inten    --      9.1536                 0.0494                39.7209

                     16                     17                     18
                      A                      A                      A
 Frequencies --    696.4984               725.8459               752.8345
 Red. masses --      2.4746                 2.0313                11.2683
 Frc consts  --      0.7073                 0.6305                 3.7628
 IR Inten    --     11.1401                51.7403                 4.5822

                     19                     20                     21
                      A                      A                      A
 Frequencies --    814.5735               863.2350               950.8537
 Red. masses --      2.9336                 1.2544                 1.3927
 Frc consts  --      1.1469                 0.5508                 0.7419
 IR Inten    --      1.3623                 1.0002                 0.1151

                     22                     23                     24
                      A                      A                      A
 Frequencies --    958.5972               988.4241              1013.4872
 Red. masses --      8.5277                 1.3601                 1.2916
 Frc consts  --      4.6170                 0.7829                 0.7817
 IR Inten    --    105.7537                 0.7572                 0.1067

                     25                     26                     27
                      A                      A                      A
 Frequencies --   1019.1865              1059.4104              1121.8955
 Red. masses --      6.1577                 2.1559                 1.5790
 Frc consts  --      3.7686                 1.4257                 1.1710
 IR Inten    --      0.3683                 0.5294                 2.4001

                     28                     29                     30
                      A                      A                      A
 Frequencies --   1183.9659              1194.9808              1205.2109
 Red. masses --     11.9442                 1.2827                 2.8593
 Frc consts  --      9.8647                 1.0792                 2.4471
 IR Inten    --    250.4728                39.9192               170.5651

                     31                     32                     33
                      A                      A                      A
 Frequencies --   1222.6224              1247.7972              1354.0367
 Red. masses --      1.3158                 6.0927                 4.5088
 Frc consts  --      1.1588                 5.5892                 4.8705
 IR Inten    --     31.4143               275.7977                13.0960

                     34                     35                     36
                      A                      A                      A
 Frequencies --   1363.3863              1377.8650              1497.4294
 Red. masses --      4.2791                 1.8572                 2.2883
 Frc consts  --      4.6864                 2.0774                 3.0232
 IR Inten    --     10.0063                 2.3448                14.6538

                     37                     38                     39
                      A                      A                      A
 Frequencies --   1543.7103              1636.9828              1659.2584
 Red. masses --      2.1356                 5.2052                 5.3159
 Frc consts  --      2.9985                 8.2181                 8.6229
 IR Inten    --      0.4428                 7.7109                39.4968

                     40                     41                     42
                      A                      A                      A
 Frequencies --   1797.8358              3190.7752              3202.8761
 Red. masses --     12.9248                 1.0862                 1.0902
 Frc consts  --     24.6136                 6.5154                 6.5891
 IR Inten    --    187.1536                 0.4878                13.1362

                     43                     44                     45
                      A                      A                      A
 Frequencies --   3212.5209              3227.9270              3245.3366
 Red. masses --      1.0950                 1.0934                 1.0920
 Frc consts  --      6.6584                 6.7125                 6.7765
 IR Inten    --     17.7024                 5.0604                 2.3354

 - Thermochemistry -
 -------------------
 Temperature   298.150 Kelvin.  Pressure   1.00000 Atm.
 Atom     1 has atomic number  8 and mass  15.99491

 Molecular mass:   174.02925 amu.
 Principal axes and moments of inertia in atomic units:
                           1         2         3
     Eigenvalues --   887.836622931.203893495.69355
           X            0.99998  -0.00585   0.00000
           Y            0.00585   0.99998  -0.00000
           Z           -0.00000   0.00000   1.00000
 This molecule is an asymmetric top.
 Rotational symmetry number  1.
 Warning -- assumption of classical behavior for rotation
           may cause significant error
 Rotational temperatures (Kelvin)      0.09756     0.02955     0.02478
 Rotational constants (GHZ):           2.03274     0.61570     0.51628
 Zero-point vibrational energy     303255.1 (Joules/Mol)
                                   72.47970 (Kcal/Mol)
 Warning -- explicit consideration of  13 degrees of freedom as
           vibrations may cause significant error
 Vibrational temperatures:     59.00    88.82   206.38   209.08   347.69
          (Kelvin)            384.38   451.31   561.02   591.26   639.86
                              692.02   747.11   865.35   908.90   975.39
                             1002.11  1044.33  1083.16  1171.99  1242.00
                             1368.07  1379.21  1422.12  1458.18  1466.38
                             1524.26  1614.16  1703.46  1719.31  1734.03
                             1759.08  1795.30  1948.16  1961.61  1982.44
                             2154.47  2221.05  2355.25  2387.30  2586.68
                             4590.81  4608.22  4622.10  4644.27  4669.32

 Zero-point correction=                           0.115504 (Hartree/Particle)
 Thermal correction to Energy=                    0.125247
 Thermal correction to Enthalpy=                  0.126191
 Thermal correction to Gibbs Free Energy=         0.079077
 Sum of electronic and zero-point Energies=           -682.488649
 Sum of electronic and thermal Energies=              -682.478906
 Sum of electronic and thermal Enthalpies=            -682.477962
 Sum of electronic and thermal Free Energies=         -682.525076

                     E (Thermal)             CV                S
                      KCal/Mol        Cal/Mol-Kelvin    Cal/Mol-Kelvin
 Total                   78.594             36.243             99.160
 Electronic               0.000              0.000              0.000
 Translational            0.889              2.981             41.370
 Rotational               0.889              2.981             30.587
 Vibrational             76.816             30.282             27.203
 Vibration     1          0.594              1.981              5.210
 Vibration     2          0.597              1.973              4.401
 Vibration     3          0.616              1.910              2.757
 Vibration     4          0.617              1.908              2.733
 Vibration     5          0.658              1.777              1.791
 Vibration     6          0.672              1.733              1.615
 Vibration     7          0.702              1.648              1.343
 Vibration     8          0.758              1.492              1.000
 Vibration     9          0.775              1.446              0.923
 Vibration    10          0.804              1.373              0.812
 Vibration    11          0.837              1.292              0.707
 Vibration    12          0.874              1.207              0.612
 Vibration    13          0.960              1.029              0.447

 Optimization completed.
    -- Stationary point found.
 Normal termination of Gaussian 16 at Fri Nov 15 21:27:59 2024.
