 Gaussian 16, Revision A.03,
 Gaussian 16:  EM64M-G16RevA.03 25-Dec-2016

 -------------------------------
 # freq opt=tight b3lyp 6-31g(d)
 -------------------------------

 ---------
 good luck
 ---------
 Symbolic Z-matrix:
 Charge =  0 Multiplicity = 1

 SCF Done:  E(RB3LYP) =  -592.667202955     A.U. after   15 cycles
 SCF Done:  E(RB3LYP) =  -592.668885592     A.U. after   13 cycles
 SCF Done:  E(RB3LYP) =  -592.668605042     A.U. after   13 cycles
 SCF Done:  E(RB3LYP) =  -592.669094162     A.U. after   12 cycles
 SCF Done:  E(RB3LYP) =  -592.669298591     A.U. after   11 cycles
 SCF Done:  E(RB3LYP) =  -592.669343756     A.U. after   11 cycles
 SCF Done:  E(RB3LYP) =  -592.669355656     A.U. after   11 cycles
 SCF Done:  E(RB3LYP) =  -592.669356936     A.U. after   10 cycles
 SCF Done:  E(RB3LYP) =  -592.669357086     A.U. after    8 cycles
 SCF Done:  E(RB3LYP) =  -592.669357161     A.U. after    8 cycles
 SCF Done:  E(RB3LYP) =  -592.669357191     A.U. after    8 cycles
 SCF Done:  E(RB3LYP) =  -592.669357192     A.U. after    6 cycles
 SCF Done:  E(RB3LYP) =  -592.669357192     A.U. after    5 cycles
 SCF Done:  E(RB3LYP) =  -592.669357190     A.U. after    6 cycles
 SCF Done:  E(RB3LYP) =  -592.669357192     A.U. after    7 cycles
 Optimization completed.
    -- Stationary point found.
 Normal termination of Gaussian 16 at Sat Nov 16 06:48:17 2024.

 --------------------------------------------------------------------
 #N Geom=AllCheck Guess=TCheck SCRF=Check GenChk RB3LYP/6-31G(d) Freq
 --------------------------------------------------------------------

 Structure from the checkpoint file:  "1.chk"
 ---------
 good luck
 ---------
 Charge =  0 Multiplicity = 1

                         Standard orientation:
 ---------------------------------------------------------------------
 Center     Atomic      Atomic             Coordinates (Angstroms)
 Number     Number       Type             X           Y           Z
 ---------------------------------------------------------------------
      1          8           0        0.035672    2.252440    0.017457
      2          6           0        0.012612    1.025161    0.011365
      3          6           0       -1.299352    0.303564    0.012297
      4          6           0       -1.469395   -1.045212    0.367419
      5          6           0       -2.746092   -1.606428    0.397243
      6          6           0       -3.863055   -0.838909    0.064912
      7          6           0       -3.703894    0.504195   -0.289290
      8          6           0       -2.434556    1.071259   -0.305884
      9          6           0        1.344664    0.303549   -0.002457
     10          6           0        2.487867    1.049977    0.318952
     11          6           0        3.730693    0.426833    0.270783
     12          6           0        3.794263   -0.914146   -0.108072
     13          6           0        2.602284   -1.572024   -0.416270
     14          7           0        1.401074   -0.988241   -0.364253
     15          1           0       -0.606599   -1.650704    0.608913
     16          1           0       -2.866636   -2.648969    0.679198
     17          1           0       -4.854745   -1.283746    0.082945
     18          1           0       -4.570391    1.107126   -0.547259
     19          1           0       -2.293515    2.115871   -0.562005
     20          1           0        2.375190    2.093540    0.588193
     21          1           0        4.634051    0.977076    0.519688
     22          1           0        4.741812   -1.441559   -0.165234
     23          1           0        2.611707   -2.617391   -0.720313
 ---------------------------------------------------------------------

 SCF Done:  E(RB3LYP) =  -592.669357192     A.U. after    1 cycles

 The electronic state is 1-A.
 Alpha  occ. eigenvalues --  -19.13594 -14.34288 -10.27594 -10.23651 -10.23406
 Alpha  occ. eigenvalues --  -10.21836 -10.21288 -10.20686 -10.19675 -10.19628
 Alpha  occ. eigenvalues --  -10.19157 -10.19083 -10.19048 -10.19004  -1.03615
 Alpha  occ. eigenvalues --   -0.95246  -0.85390  -0.81350  -0.77973  -0.75495
 Alpha  occ. eigenvalues --   -0.74446  -0.66604  -0.63973  -0.61920  -0.60275
 Alpha  occ. eigenvalues --   -0.56323  -0.52997  -0.50855  -0.49126  -0.47355
 Alpha  occ. eigenvalues --   -0.45392  -0.44619  -0.43566  -0.42389  -0.42185
 Alpha  occ. eigenvalues --   -0.42050  -0.40464  -0.38647  -0.37911  -0.35634
 Alpha  occ. eigenvalues --   -0.35352  -0.34069  -0.29702  -0.27688  -0.26901
 Alpha  occ. eigenvalues --   -0.25423  -0.24951  -0.24258
 Alpha virt. eigenvalues --   -0.07251  -0.03046  -0.01259   0.00168   0.05919
 Alpha virt. eigenvalues --    0.09066   0.10161   0.13765   0.14387   0.14925
 Alpha virt. eigenvalues --    0.15888   0.16890   0.17563   0.18083   0.19157

 Mulliken charges:
               1
     1  O   -0.472973
     2  C    0.353007
     3  C    0.066115
     4  C   -0.146152
     5  C   -0.142305
     6  C   -0.116603
     7  C   -0.136421
     8  C   -0.150140
     9  C    0.225785
    10  C   -0.140796
    11  C   -0.104496
    12  C   -0.137768
    13  C    0.039281
    14  N   -0.474560
    15  H    0.159271
    16  H    0.132745
    17  H    0.134157
    18  H    0.134543
    19  H    0.159722
    20  H    0.173230
    21  H    0.151275
    22  H    0.146559
    23  H    0.146525
 Sum of Mulliken charges =  -0.00000

 Dipole moment (field-independent basis, Debye):
    X=              1.6720    Y=             -1.9565    Z=              0.4522  Tot=              2.6130
 Quadrupole moment (field-independent basis, Debye-Ang):
   XX=            -58.1053   YY=            -79.2905   ZZ=            -81.7899
   XY=             -0.2964   XZ=              1.4623   YZ=             -0.7563

  Exact polarizability: 198.062   1.022 137.113   6.568  -0.937  51.439
 Approx polarizability: 282.076   4.141 261.221  13.750  -1.423  83.817

                      1                      2                      3
                      A                      A                      A
 Frequencies --     33.1683                35.7911               114.8676
 Red. masses --      4.0982                 5.2528                 4.8251
 Frc consts  --      0.0027                 0.0040                 0.0375
 IR Inten    --      0.8465                 3.7023                 1.7992

                      4                      5                      6
                      A                      A                      A
 Frequencies --    138.1974               197.0629               253.8572
 Red. masses --      6.0977                 4.8999                 5.2947
 Frc consts  --      0.0686                 0.1121                 0.2010
 IR Inten    --      0.8454                 1.0670                 7.2637

                      7                      8                      9
                      A                      A                      A
 Frequencies --    294.3149               399.2115               413.3936
 Red. masses --      6.0082                 5.3554                 3.1995
 Frc consts  --      0.3066                 0.5029                 0.3222
 IR Inten    --      0.0661                 4.6610                 0.4912

                     10                     11                     12
                      A                      A                      A
 Frequencies --    417.0542               436.5216               469.7610
 Red. masses --      3.7726                 4.8638                 3.7728
 Frc consts  --      0.3866                 0.5461                 0.4905
 IR Inten    --      3.4591                 0.6094                 0.6581

                     13                     14                     15
                      A                      A                      A
 Frequencies --    570.0595               630.4462               634.7734
 Red. masses --      6.3326                 6.9315                 6.8140
 Frc consts  --      1.2125                 1.6232                 1.6177
 IR Inten    --      0.0896                 8.9398                 6.0737

                     16                     17                     18
                      A                      A                      A
 Frequencies --    665.9086               694.0547               708.5830
 Red. masses --      6.5602                 3.9420                 1.6781
 Frc consts  --      1.7140                 1.1188                 0.4964
 IR Inten    --     33.9915                 2.8587                72.6900

                     19                     20                     21
                      A                      A                      A
 Frequencies --    745.8551               760.1027               785.0874
 Red. masses --      5.6819                 2.0089                 1.6325
 Frc consts  --      1.8623                 0.6838                 0.5928
 IR Inten    --      2.6319                20.1614                 4.5281

                     22                     23                     24
                      A                      A                      A
 Frequencies --    847.5226               863.3882               929.1811
 Red. masses --      2.9830                 1.2505                 1.3411
 Frc consts  --      1.2624                 0.5492                 0.6822
 IR Inten    --      7.9525                 2.5512                 1.3410

                     25                     26                     27
                      A                      A                      A
 Frequencies --    949.8737               955.2674               983.4405
 Red. masses --      2.7436                 1.9275                 1.3707
 Frc consts  --      1.4585                 1.0363                 0.7811
 IR Inten    --     59.1831                20.1044                 3.7455

                     28                     29                     30
                      A                      A                      A
 Frequencies --    985.6317              1005.9266              1015.0139
 Red. masses --      1.4389                 1.2919                 6.3285
 Frc consts  --      0.8236                 0.7702                 3.8415
 IR Inten    --      4.6914                 0.7512                11.0162

                     31                     32                     33
                      A                      A                      A
 Frequencies --   1018.2430              1020.4498              1059.2292
 Red. masses --      1.3187                 6.1778                 2.2300
 Frc consts  --      0.8055                 3.7902                 1.4741
 IR Inten    --      0.6510                 0.0940                 1.4146

                     34                     35                     36
                      A                      A                      A
 Frequencies --   1074.8319              1115.3099              1124.3559
 Red. masses --      2.2504                 1.5681                 1.5180
 Frc consts  --      1.5317                 1.1493                 1.1307
 IR Inten    --      3.8238                 4.0073                11.4620

                     37                     38                     39
                      A                      A                      A
 Frequencies --   1178.2184              1184.8169              1194.3642
 Red. masses --      2.0314                 1.3916                 1.1111
 Frc consts  --      1.6615                 1.1510                 0.9339
 IR Inten    --     20.4627                17.5430                 0.3033

                     40                     41                     42
                      A                      A                      A
 Frequencies --   1216.3346              1300.3153              1322.8027
 Red. masses --      1.1761                 5.1749                 1.7072
 Frc consts  --      1.0252                 5.1553                 1.7601
 IR Inten    --     21.0597               208.1701                10.0412

                     43                     44                     45
                      A                      A                      A
 Frequencies --   1338.7666              1351.9632              1368.4778
 Red. masses --      4.1257                 2.3438                 2.3081
 Frc consts  --      4.3567                 2.5241                 2.5467
 IR Inten    --     79.8777                13.4601                 5.5333

                     46                     47                     48
                      A                      A                      A
 Frequencies --   1474.5304              1492.5311              1514.7297
 Red. masses --      2.1460                 2.2323                 2.2522
 Frc consts  --      2.7490                 2.9299                 3.0446
 IR Inten    --      7.3222                19.9035                 0.8472

                     49                     50                     51
                      A                      A                      A
 Frequencies --   1537.6502              1626.0570              1633.4627
 Red. masses --      2.1638                 5.8324                 5.3414
 Frc consts  --      3.0142                 9.0860                 8.3970
 IR Inten    --      0.5066                23.5674                15.4531

                     52                     53                     54
                      A                      A                      A
 Frequencies --   1639.8641              1656.9728              1734.3862
 Red. masses --      5.3733                 5.5240                12.1820
 Frc consts  --      8.5134                 8.9359                21.5905
 IR Inten    --      6.1016                28.8379               126.9987

                     55                     56                     57
                      A                      A                      A
 Frequencies --   3174.4224              3182.5850              3194.7836
 Red. masses --      1.0892                 1.0856                 1.0903
 Frc consts  --      6.4665                 6.4788                 6.5566
 IR Inten    --     19.5487                 0.3205                19.9198

                     58                     59                     60
                      A                      A                      A
 Frequencies --   3196.9201              3206.0313              3215.2498
 Red. masses --      1.0892                 1.0957                 1.0962
 Frc consts  --      6.5588                 6.6353                 6.6770
 IR Inten    --     12.1260                32.0745                21.9722

                     61                     62                     63
                      A                      A                      A
 Frequencies --   3227.6151              3243.0497              3261.8931
 Red. masses --      1.0924                 1.0929                 1.0914
 Frc consts  --      6.7051                 6.7721                 6.8421
 IR Inten    --      6.7012                 2.0027                 2.4164

 - Thermochemistry -
 -------------------
 Temperature   298.150 Kelvin.  Pressure   1.00000 Atm.
 Atom     1 has atomic number  8 and mass  15.99491

 Molecular mass:   183.06841 amu.
 Principal axes and moments of inertia in atomic units:
                           1         2         3
     Eigenvalues --  1000.414034378.620245275.42727
           X            1.00000   0.00081   0.00183
           Y           -0.00080   0.99999  -0.00336
           Z           -0.00183   0.00336   0.99999
 This molecule is an asymmetric top.
 Rotational symmetry number  1.
 Warning -- assumption of classical behavior for rotation
           may cause significant error
 Rotational temperatures (Kelvin)      0.08658     0.01978     0.01642
 Rotational constants (GHZ):           1.80399     0.41217     0.34210
 Zero-point vibrational energy     472611.9 (Joules/Mol)
                                  112.95694 (Kcal/Mol)
 Warning -- explicit consideration of  13 degrees of freedom as
           vibrations may cause significant error
 Vibrational temperatures:     47.72    51.50   165.27   198.84   283.53
          (Kelvin)            365.24   423.45   574.38   594.78   600.05
                              628.06   675.88   820.19   907.07   913.30
                              958.09   998.59  1019.49  1073.12  1093.62
                             1129.57  1219.40  1242.22  1336.88  1366.66
                             1374.42  1414.95  1418.10  1447.30  1460.38
                             1465.02  1468.20  1523.99  1546.44  1604.68
                             1617.70  1695.19  1704.69  1718.42  1750.03
                             1870.86  1903.22  1926.19  1945.17  1968.93
                             2121.52  2147.42  2179.36  2212.34  2339.53
                             2350.19  2359.40  2384.01  2495.39  4567.29
                             4579.03  4596.58  4599.65  4612.76  4626.03
                             4643.82  4666.03  4693.14

 Zero-point correction=                           0.180008 (Hartree/Particle)
 Thermal correction to Energy=                    0.190661
 Thermal correction to Enthalpy=                  0.191606
 Thermal correction to Gibbs Free Energy=         0.141878
 Sum of electronic and zero-point Energies=           -592.489349
 Sum of electronic and thermal Energies=              -592.478696
 Sum of electronic and thermal Enthalpies=            -592.477752
 Sum of electronic and thermal Free Energies=         -592.527479

                     E (Thermal)             CV                S
                      KCal/Mol        Cal/Mol-Kelvin    Cal/Mol-Kelvin
 Total                  119.642             41.668            104.661
 Electronic               0.000              0.000              0.000
 Translational            0.889              2.981             41.520
 Rotational               0.889              2.981             31.514
 Vibrational            117.864             35.706             31.627
 Vibration     1          0.594              1.983              5.630
 Vibration     2          0.594              1.982              5.479
 Vibration     3          0.608              1.937              3.185
 Vibration     4          0.614              1.915              2.829
 Vibration     5          0.636              1.844              2.160
 Vibration     6          0.665              1.756              1.704
 Vibration     7          0.689              1.684              1.449
 Vibration     8          0.765              1.472              0.966
 Vibration     9          0.777              1.441              0.915
 Vibration    10          0.780              1.433              0.902
 Vibration    11          0.797              1.391              0.838
 Vibration    12          0.827              1.317              0.738
 Vibration    13          0.926              1.096              0.504

 Optimization completed.
    -- Stationary point found.
 Normal termination of Gaussian 16 at Sat Nov 16 06:49:23 2024.
